LAMMPS (17 Apr 2024 - Development - r11423-31534-g8f61bc57d2)
