LAMMPS (2 Aug 2023 - Update 2)
  using 1 OpenMP thread(s) per MPI task
Loaded 1 plugins from /home/tisi/ipi-paper-test/venv-cpu/lib64/python3.9/site-packages/deepmd/lib
Loaded 1 plugins from /home/tisi/ipi-paper-test/venv-cpu/lib64/python3.9/site-packages/deepmd/lib
Reading data file ...
  orthogonal box = (0 0 0) to (51.05457 51.05457 51.05457)
  1 by 1 by 1 MPI processor grid
  reading atoms ...
  12288 atoms
  read_data CPU = 0.025 seconds
Summary of lammps deepmd module ...
  >>> Info of deepmd-kit:
  installed to:       /usr/local
  source:             v2.2.9
  source branch:      HEAD
  source commit:      be437483
  source commit at:   2024-02-04 13:44:12 +0800
  support model ver.: 1.1 
  build variant:      cuda
  build with tf inc:  /tmp/pip-build-env-lkf22wl1/normal/lib/python3.11/site-packages/tensorflow/include/;/tmp/pip-build-env-lkf22wl1/normal/lib/python3.11/site-packages/tensorflow/include/
  build with tf lib:  /tmp/pip-build-env-lkf22wl1/normal/lib/python3.11/site-packages/tensorflow/libtensorflow_cc.so.2
  set tf intra_op_parallelism_threads: 1
  set tf inter_op_parallelism_threads: 1
  >>> Info of lammps module:
  use deepmd-kit at:  /usr/local
  source:             v2.2.9
  source branch:      HEAD
  source commit:      be437483
  source commit at:   2024-02-04 13:44:12 +0800
  build float prec:   double
  build with tf inc:  /tmp/pip-build-env-lkf22wl1/normal/lib/python3.11/site-packages/tensorflow/include/;/tmp/pip-build-env-lkf22wl1/normal/lib/python3.11/site-packages/tensorflow/include/
  build with tf lib:  /tmp/pip-build-env-lkf22wl1/normal/lib/python3.11/site-packages/tensorflow/libtensorflow_cc.so.2
INVALID_ARGUMENT: Tensor spin_attr/ntypes_spin:0, specified in either feed_devices or fetch_devices was not found in the Graph
  >>> Info of model(s):
  using   1 model(s): ../frozen_model.pb 
  rcut in model:      6
  ntypes in model:    2

CITE-CITE-CITE-CITE-CITE-CITE-CITE-CITE-CITE-CITE-CITE-CITE-CITE

Your simulation uses code contributions which should be cited:
- USER-DEEPMD package:
The log file lists these citations in BibTeX format.

CITE-CITE-CITE-CITE-CITE-CITE-CITE-CITE-CITE-CITE-CITE-CITE-CITE

WARNING: No fixes with time integration, atoms won't move (src/src/verlet.cpp:60)
Generated 0 of 1 mixed pair_coeff terms from geometric mixing rule
ERROR on proc 0: Error opening UNIX socket: server may not be running or the path to the socket unavailable (src/src/MISC/fix_ipi.cpp:123)
Last command: run		10000000
