LAMMPS (2 Aug 2023 - Update 2)
  using 1 OpenMP thread(s) per MPI task
Loaded 1 plugins from /home/tisi/ipi-paper-test/venv-gpu-cuda-direct/lib64/python3.9/site-packages/deepmd/lib
Loaded 1 plugins from /home/tisi/ipi-paper-test/venv-gpu-cuda-direct/lib64/python3.9/site-packages/deepmd/lib
Reading data file ...
  orthogonal box = (0 0 0) to (51.05457 51.05457 51.05457)
  2 by 2 by 2 MPI processor grid
  reading atoms ...
  12288 atoms
  read_data CPU = 0.058 seconds
Summary of lammps deepmd module ...
  >>> Info of deepmd-kit:
  installed to:       /usr/local
  source:             v2.2.9-dirty
  source branch:      HEAD
  source commit:      be437483
  source commit at:   2024-02-04 13:44:12 +0800
  support model ver.: 1.1 
  build variant:      cuda
  build with tf inc:  /tmp/pip-build-env-dfjz2qcl/normal/lib/python3.11/site-packages/tensorflow/include/;/tmp/pip-build-env-dfjz2qcl/normal/lib/python3.11/site-packages/tensorflow/include/
  build with tf lib:  /tmp/pip-build-env-dfjz2qcl/normal/lib/python3.11/site-packages/tensorflow/libtensorflow_cc.so.2
  set tf intra_op_parallelism_threads: 1
  set tf inter_op_parallelism_threads: 1
  >>> Info of lammps module:
  use deepmd-kit at:  /usr/local
  source:             v2.2.9-dirty
  source branch:      HEAD
  source commit:      be437483
  source commit at:   2024-02-04 13:44:12 +0800
  build float prec:   double
  build with tf inc:  /tmp/pip-build-env-dfjz2qcl/normal/lib/python3.11/site-packages/tensorflow/include/;/tmp/pip-build-env-dfjz2qcl/normal/lib/python3.11/site-packages/tensorflow/include/
  build with tf lib:  /tmp/pip-build-env-dfjz2qcl/normal/lib/python3.11/site-packages/tensorflow/libtensorflow_cc.so.2
INVALID_ARGUMENT: Tensor spin_attr/ntypes_spin:0, specified in either feed_devices or fetch_devices was not found in the Graph
INVALID_ARGUMENT: Tensor spin_attr/ntypes_spin:0, specified in either feed_devices or fetch_devices was not found in the Graph
  >>> Info of model(s):
  using   1 model(s): ../frozen_model.pb 
  rcut in model:      6
  ntypes in model:    2

CITE-CITE-CITE-CITE-CITE-CITE-CITE-CITE-CITE-CITE-CITE-CITE-CITE

Your simulation uses code contributions which should be cited:
- USER-DEEPMD package:
The log file lists these citations in BibTeX format.

CITE-CITE-CITE-CITE-CITE-CITE-CITE-CITE-CITE-CITE-CITE-CITE-CITE

Generated 0 of 1 mixed pair_coeff terms from geometric mixing rule
INVALID_ARGUMENT: Tensor spin_attr/ntypes_spin:0, specified in either feed_devices or fetch_devices was not found in the Graph
INVALID_ARGUMENT: Tensor spin_attr/ntypes_spin:0, specified in either feed_devices or fetch_devices was not found in the Graph
INVALID_ARGUMENT: Tensor spin_attr/ntypes_spin:0, specified in either feed_devices or fetch_devices was not found in the Graph
INVALID_ARGUMENT: Tensor spin_attr/ntypes_spin:0, specified in either feed_devices or fetch_devices was not found in the Graph
INVALID_ARGUMENT: Tensor spin_attr/ntypes_spin:0, specified in either feed_devices or fetch_devices was not found in the Graph
INVALID_ARGUMENT: Tensor spin_attr/ntypes_spin:0, specified in either feed_devices or fetch_devices was not found in the Graph
Neighbor list info ...
  update: every = 1 steps, delay = 0 steps, check = yes
  max neighbors/atom: 2000, page size: 100000
  master list distance cutoff = 6.1
  ghost atom cutoff = 6.1
  binsize = 3.05, bins = 17 17 17
  1 neighbor lists, perpetual/occasional/extra = 1 0 0
  (1) pair deepmd, perpetual
      attributes: full, newton on
      pair build: full/bin/atomonly
      stencil: full/bin/3d
      bin: standard
Setting up Verlet run ...
  Unit style    : metal
  Current step  : 0
  Time step     : 0.002
Per MPI rank memory allocation (min/avg/max) = 3.565 | 3.574 | 3.582 Mbytes
   Step          Time           Temp          PotEng         TotEng         Press          Volume          Pxx            Pyy            Pzz            Pxy            Pxz            Pyz      
         0   0              0             -1917578.7     -1917578.7      36197.507      133077.27      36365.475      36365.475      35861.571      0.00010368372 -0.0010705934  -0.0012015717 
       100   0.2            38.553562     -1917687.6     -1917626.3      8124.6962      133077.27      10192.473      10192.473      3989.1428      2.596537e-05  -0.00044084261 -0.00022600477
Loop time of 1.69243 on 8 procs for 100 steps with 12288 atoms

Performance: 10.210 ns/day, 2.351 hours/ns, 59.087 timesteps/s, 726.057 katom-step/s
94.9% CPU use with 8 MPI tasks x 1 OpenMP threads

MPI task timing breakdown:
Section |  min time  |  avg time  |  max time  |%varavg| %total
---------------------------------------------------------------
Pair    | 1.3849     | 1.4355     | 1.4935     |   3.1 | 84.82
Neigh   | 0.053812   | 0.058954   | 0.064615   |   1.7 |  3.48
Comm    | 0.067857   | 0.13047    | 0.18591    |  11.2 |  7.71
Output  | 0.00030897 | 0.00034715 | 0.00041775 |   0.0 |  0.02
Modify  | 0.055512   | 0.060351   | 0.064287   |   1.2 |  3.57
Other   |            | 0.006837   |            |       |  0.40

Nlocal:           1536 ave        1568 max        1504 min
Histogram: 2 0 0 0 0 4 0 0 0 2
Nghost:           3449 ave        3481 max        3417 min
Histogram: 2 0 0 0 0 4 0 0 0 2
Neighs:              0 ave           0 max           0 min
Histogram: 8 0 0 0 0 0 0 0 0 0
FullNghs:       136192 ave      139136 max      133248 min
Histogram: 2 0 0 0 0 4 0 0 0 2

Total # of neighbors = 1089536
Ave neighs/atom = 88.666667
Neighbor list builds = 22
Dangerous builds = 0
Total wall time: 0:00:05
