3
Lattice="7.0 0.0 0.0 4.286263797015736e-16 7.0 0.0 4.286263797015736e-16 4.2862637970157366e-16 7.0" Properties=species:S:1:pos:R:3:velocities:R:3 step=0.0 time=0.0 conserved=1.27656759e-07 kinetic_md=0.0 potential=1.27656759e-07 Efield="0.0 1.67731314e-05 0.0" Eenvelope=0.000335462628 dipole="-3.5e-06 0.38814499 1.33e-06" pbc="T T T"
O        3.77946000       3.41870000       3.77945000      -0.00000000       0.00000000      -0.00000000
H        3.77945000       4.52675000       5.21072000      -0.00000000       0.00000000      -0.00000000
H        3.77945000       4.52675000       2.34819000       0.00000000      -0.00000000       0.00000000
3
Lattice="7.0 0.0 0.0 4.286263797015736e-16 7.0 0.0 4.286263797015736e-16 4.2862637970157366e-16 7.0" Properties=species:S:1:pos:R:3:velocities:R:3 step=1.0 time=4.1341373 conserved=1.2765684e-07 kinetic_md=1.75918373e-13 potential=1.27656664e-07 Efield="0.0 1.6863702e-05 0.0" Eenvelope=0.000338156416 dipole="-3.5e-06 0.38814499 1.33e-06" pbc="T T T"
O        3.77946000       3.41870000       3.77945000      -0.00000000      -0.00000000       0.00000000
H        3.77945000       4.52675000       5.21072000       0.00000000       0.00000000      -0.00000001
H        3.77945000       4.52675000       2.34819000       0.00000000       0.00000001       0.00000000
3
Lattice="7.0 0.0 0.0 4.286263797015736e-16 7.0 0.0 4.286263797015736e-16 4.2862637970157366e-16 7.0" Properties=species:S:1:pos:R:3:velocities:R:3 step=2.0 time=8.2682746 conserved=1.27657083e-07 kinetic_md=7.02413305e-13 potential=1.2765638e-07 Efield="0.0 1.6865864e-05 0.0" Eenvelope=0.000340870472 dipole="-3.5e-06 0.388145 1.32e-06" pbc="T T T"
O        3.77946000       3.41870000       3.77945000      -0.00000000      -0.00000000       0.00000000
H        3.77945000       4.52675000       5.21072000       0.00000000       0.00000000      -0.00000002
H        3.77945000       4.52675000       2.34819000       0.00000000       0.00000001       0.00000001
3
Lattice="7.0 0.0 0.0 4.286263797015736e-16 7.0 0.0 4.286263797015736e-16 4.2862637970157366e-16 7.0" Properties=species:S:1:pos:R:3:velocities:R:3 step=3.0 time=12.4024119 conserved=1.27657487e-07 kinetic_md=1.57182937e-12 potential=1.27655915e-07 Efield="0.0 1.67781821e-05 0.0" Eenvelope=0.000343604937 dipole="-3.5e-06 0.38814502 1.31e-06" pbc="T T T"
O        3.77946000       3.41870000       3.77945000      -0.00000000      -0.00000000       0.00000000
H        3.77945000       4.52675000       5.21072000       0.00000000       0.00000000      -0.00000003
H        3.77945000       4.52675000       2.34819000       0.00000000       0.00000002       0.00000001
3
Lattice="7.0 0.0 0.0 4.286263797015736e-16 7.0 0.0 4.286263797015736e-16 4.2862637970157366e-16 7.0" Properties=species:S:1:pos:R:3:velocities:R:3 step=4.0 time=16.5365492 conserved=1.27658048e-07 kinetic_md=2.76889353e-12 potential=1.27655279e-07 Efield="0.0 1.65996781e-05 0.0" Eenvelope=0.000346359952 dipole="-3.5e-06 0.38814503 1.3e-06" pbc="T T T"
O        3.77946000       3.41870000       3.77945000      -0.00000000      -0.00000000       0.00000000
H        3.77945000       4.52675000       5.21072000       0.00000000       0.00000000      -0.00000005
H        3.77945000       4.52675000       2.34819000       0.00000000       0.00000002       0.00000002
3
Lattice="7.0 0.0 0.0 4.286263797015736e-16 7.0 0.0 4.286263797015736e-16 4.2862637970157366e-16 7.0" Properties=species:S:1:pos:R:3:velocities:R:3 step=5.0 time=20.6706865 conserved=1.27658755e-07 kinetic_md=4.270942e-12 potential=1.27654484e-07 Efield="0.0 1.63298436e-05 0.0" Eenvelope=0.00034913566 dipole="-3.5e-06 0.38814506 1.28e-06" pbc="T T T"
O        3.77946000       3.41870000       3.77945000      -0.00000000      -0.00000000       0.00000000
H        3.77945000       4.52675000       5.21072000       0.00000000       0.00000000      -0.00000006
H        3.77945000       4.52675000       2.34819000       0.00000000       0.00000003       0.00000002
3
Lattice="7.0 0.0 0.0 4.286263797015736e-16 7.0 0.0 4.286263797015736e-16 4.2862637970157366e-16 7.0" Properties=species:S:1:pos:R:3:velocities:R:3 step=6.0 time=24.8048238 conserved=1.27659598e-07 kinetic_md=6.0483139e-12 potential=1.2765355e-07 Efield="0.0 1.59686499e-05 0.0" Eenvelope=0.000351932205 dipole="-3.5e-06 0.38814508 1.26e-06" pbc="T T T"
O        3.77946000       3.41870000       3.77945000      -0.00000000      -0.00000000       0.00000000
H        3.77945000       4.52675000       5.21072000       0.00000000       0.00000000      -0.00000007
H        3.77945000       4.52675000       2.34819000       0.00000000       0.00000004       0.00000002
3
Lattice="7.0 0.0 0.0 4.286263797015736e-16 7.0 0.0 4.286263797015736e-16 4.2862637970157366e-16 7.0" Properties=species:S:1:pos:R:3:velocities:R:3 step=7.0 time=28.9389611 conserved=1.2766056e-07 kinetic_md=8.06490684e-12 potential=1.27652495e-07 Efield="0.0 1.55165562e-05 0.0" Eenvelope=0.000354749731 dipole="-3.5e-06 0.38814512 1.24e-06" pbc="T T T"
O        3.77946000       3.41870000       3.77945000      -0.00000000      -0.00000000       0.00000000
H        3.77945000       4.52675000       5.21072000       0.00000000       0.00000000      -0.00000008
H        3.77945000       4.52675000       2.34819000       0.00000000       0.00000004       0.00000003
3
Lattice="7.0 0.0 0.0 4.286263797015736e-16 7.0 0.0 4.286263797015736e-16 4.2862637970157366e-16 7.0" Properties=species:S:1:pos:R:3:velocities:R:3 step=8.0 time=33.0730984 conserved=1.27661623e-07 kinetic_md=1.02788858e-11 potential=1.27651344e-07 Efield="0.0 1.49745151e-05 0.0" Eenvelope=0.000357588383 dipole="-3.5e-06 0.38814515 1.21e-06" pbc="T T T"
O        3.77946000       3.41870000       3.77945000      -0.00000000      -0.00000000       0.00000000
H        3.77945000       4.52675000       5.21072000       0.00000000       0.00000000      -0.00000009
H        3.77945000       4.52675000       2.34819000       0.00000000       0.00000005       0.00000003
3
Lattice="7.0 0.0 0.0 4.286263797015736e-16 7.0 0.0 4.286263797015736e-16 4.2862637970157366e-16 7.0" Properties=species:S:1:pos:R:3:velocities:R:3 step=9.0 time=37.2072357 conserved=1.27662764e-07 kinetic_md=1.26435336e-11 potential=1.27650121e-07 Efield="0.0 1.43439749e-05 0.0" Eenvelope=0.000360448308 dipole="-3.5e-06 0.38814519 1.18e-06" pbc="T T T"
O        3.77946000       3.41870000       3.77945000      -0.00000000      -0.00000000       0.00000000
H        3.77945000       4.52675000       5.21072000       0.00000000       0.00000000      -0.00000010
H        3.77945000       4.52675000       2.34819000       0.00000000       0.00000005       0.00000003
3
Lattice="7.0 0.0 0.0 4.286263797015736e-16 7.0 0.0 4.286263797015736e-16 4.2862637970157366e-16 7.0" Properties=species:S:1:pos:R:3:velocities:R:3 step=10.0 time=41.341373 conserved=1.27663961e-07 kinetic_md=1.51082271e-11 potential=1.27648852e-07 Efield="0.0 1.36268801e-05 0.0" Eenvelope=0.000363329653 dipole="-3.5e-06 0.38814524 1.14e-06" pbc="T T T"
O        3.77946000       3.41870000       3.77945000      -0.00000000      -0.00000000       0.00000000
H        3.77945000       4.52675000       5.21072000       0.00000000       0.00000000      -0.00000011
H        3.77945000       4.52675000       2.34819000       0.00000000       0.00000006       0.00000004
3
Lattice="7.0 0.0 0.0 4.286263797015736e-16 7.0 0.0 4.286263797015736e-16 4.2862637970157366e-16 7.0" Properties=species:S:1:pos:R:3:velocities:R:3 step=11.0 time=45.4755103 conserved=1.27665186e-07 kinetic_md=1.7619522e-11 potential=1.27647567e-07 Efield="0.0 1.28256691e-05 0.0" Eenvelope=0.000366232566 dipole="-3.5e-06 0.38814529 1.1e-06" pbc="T T T"
O        3.77946000       3.41870000       3.77945000      -0.00000000      -0.00000000       0.00000000
H        3.77945000       4.52675000       5.21072000       0.00000000       0.00000000      -0.00000012
H        3.77945000       4.52675000       2.34819000       0.00000000       0.00000006       0.00000004
3
Lattice="7.0 0.0 0.0 4.286263797015736e-16 7.0 0.0 4.286263797015736e-16 4.2862637970157366e-16 7.0" Properties=species:S:1:pos:R:3:velocities:R:3 step=12.0 time=49.6096476 conserved=1.27666415e-07 kinetic_md=2.01223238e-11 potential=1.27646293e-07 Efield="0.0 1.19432687e-05 0.0" Eenvelope=0.000369157196 dipole="-3.5e-06 0.38814534 1.06e-06" pbc="T T T"
O        3.77946000       3.41870000       3.77945000      -0.00000000      -0.00000000       0.00000001
H        3.77945000       4.52675000       5.21072000       0.00000000       0.00000000      -0.00000012
H        3.77945000       4.52675000       2.34819000       0.00000000       0.00000006       0.00000004
3
Lattice="7.0 0.0 0.0 4.286263797015736e-16 7.0 0.0 4.286263797015736e-16 4.2862637970157366e-16 7.0" Properties=species:S:1:pos:R:3:velocities:R:3 step=13.0 time=53.7437849 conserved=1.27667619e-07 kinetic_md=2.25611228e-11 potential=1.27645058e-07 Efield="0.0 1.09830866e-05 0.0" Eenvelope=0.000372103692 dipole="-3.5e-06 0.3881454 1.02e-06" pbc="T T T"
O        3.77946000       3.41870000       3.77945000      -0.00000000      -0.00000000       0.00000001
H        3.77945000       4.52675000       5.21072000       0.00000000      -0.00000000      -0.00000013
H        3.77945000       4.52675000       2.34819000       0.00000000       0.00000007       0.00000005
3
Lattice="7.0 0.0 0.0 4.286263797015736e-16 7.0 0.0 4.286263797015736e-16 4.2862637970157366e-16 7.0" Properties=species:S:1:pos:R:3:velocities:R:3 step=14.0 time=57.8779222 conserved=1.27668772e-07 kinetic_md=2.48812667e-11 potential=1.27643891e-07 Efield="0.0 9.94900064e-06 0.0" Eenvelope=0.000375072206 dipole="-3.5e-06 0.38814546 9.7e-07" pbc="T T T"
O        3.77946000       3.41870000       3.77945000      -0.00000000      -0.00000000       0.00000001
H        3.77945000       4.52675000       5.21072000       0.00000000      -0.00000000      -0.00000014
H        3.77945000       4.52675000       2.34819000       0.00000000       0.00000007       0.00000005
3
Lattice="7.0 0.0 0.0 4.286263797015736e-16 7.0 0.0 4.286263797015736e-16 4.2862637970157366e-16 7.0" Properties=species:S:1:pos:R:3:velocities:R:3 step=15.0 time=62.0120595 conserved=1.27669849e-07 kinetic_md=2.70302453e-11 potential=1.27642818e-07 Efield="0.0 8.84534559e-06 0.0" Eenvelope=0.00037806289 dipole="-3.5e-06 0.38814552 9.3e-07" pbc="T T T"
O        3.77946000       3.41870000       3.77945000      -0.00000000      -0.00000000       0.00000001
H        3.77945000       4.52675000       5.21072000       0.00000000      -0.00000000      -0.00000014
H        3.77945000       4.52675000       2.34819000       0.00000000       0.00000007       0.00000005
3
Lattice="7.0 0.0 0.0 4.286263797015736e-16 7.0 0.0 4.286263797015736e-16 4.2862637970157366e-16 7.0" Properties=species:S:1:pos:R:3:velocities:R:3 step=16.0 time=66.1461968 conserved=1.27670824e-07 kinetic_md=2.89589588e-11 potential=1.27641865e-07 Efield="0.0 7.67689733e-06 0.0" Eenvelope=0.000381075896 dipole="-3.5e-06 0.38814558 8.8e-07" pbc="T T T"
O        3.77946000       3.41870000       3.77945000      -0.00000000      -0.00000000       0.00000001
H        3.77945000       4.52675000       5.21071000       0.00000000      -0.00000000      -0.00000015
H        3.77945000       4.52675000       2.34819000       0.00000000       0.00000007       0.00000005
3
Lattice="7.0 0.0 0.0 4.286263797015736e-16 7.0 0.0 4.286263797015736e-16 4.2862637970157366e-16 7.0" Properties=species:S:1:pos:R:3:velocities:R:3 step=17.0 time=70.2803341 conserved=1.27671676e-07 kinetic_md=3.06229415e-11 potential=1.27641054e-07 Efield="0.0 6.44885426e-06 0.0" Eenvelope=0.000384111378 dipole="-3.5e-06 0.38814564 8.3e-07" pbc="T T T"
O        3.77946000       3.41870000       3.77945000      -0.00000000      -0.00000000       0.00000001
H        3.77945000       4.52675000       5.21071000       0.00000000      -0.00000000      -0.00000015
H        3.77945000       4.52675000       2.34819000       0.00000000       0.00000007       0.00000006
3
Lattice="7.0 0.0 0.0 4.286263797015736e-16 7.0 0.0 4.286263797015736e-16 4.2862637970157366e-16 7.0" Properties=species:S:1:pos:R:3:velocities:R:3 step=18.0 time=74.4144714 conserved=1.27672388e-07 kinetic_md=3.1983514e-11 potential=1.27640404e-07 Efield="0.0 5.1668163e-06 0.0" Eenvelope=0.000387169491 dipole="-3.5e-06 0.38814571 7.8e-07" pbc="T T T"
O        3.77946000       3.41870000       3.77945000      -0.00000000      -0.00000000       0.00000001
H        3.77945000       4.52675000       5.21071000       0.00000000      -0.00000000      -0.00000016
H        3.77945000       4.52675000       2.34819000       0.00000000       0.00000007       0.00000006
3
Lattice="7.0 0.0 0.0 4.286263797015736e-16 7.0 0.0 4.286263797015736e-16 4.2862637970157366e-16 7.0" Properties=species:S:1:pos:R:3:velocities:R:3 step=19.0 time=78.5486087 conserved=1.27672942e-07 kinetic_md=3.3008837e-11 potential=1.27639934e-07 Efield="0.0 3.83676127e-06 0.0" Eenvelope=0.00039025039 dipole="-3.5e-06 0.38814577 7.2e-07" pbc="T T T"
O        3.77946000       3.41870000       3.77945000      -0.00000000      -0.00000000       0.00000001
H        3.77945000       4.52675000       5.21071000       0.00000000      -0.00000001      -0.00000016
H        3.77945000       4.52675000       2.34819000       0.00000000       0.00000007       0.00000006
3
Lattice="7.0 0.0 0.0 4.286263797015736e-16 7.0 0.0 4.286263797015736e-16 4.2862637970157366e-16 7.0" Properties=species:S:1:pos:R:3:velocities:R:3 step=20.0 time=82.682746 conserved=1.2767333e-07 kinetic_md=3.367484e-11 potential=1.27639655e-07 Efield="0.0 2.46501897e-06 0.0" Eenvelope=0.000393354231 dipole="-3.5e-06 0.38814584 6.7e-07" pbc="T T T"
O        3.77946000       3.41870000       3.77945000      -0.00000000      -0.00000000       0.00000001
H        3.77945000       4.52675000       5.21071000       0.00000000      -0.00000001      -0.00000016
H        3.77945000       4.52675000       2.34819000       0.00000000       0.00000007       0.00000006
3
Lattice="7.0 0.0 0.0 4.286263797015736e-16 7.0 0.0 4.286263797015736e-16 4.2862637970157366e-16 7.0" Properties=species:S:1:pos:R:3:velocities:R:3 step=21.0 time=86.8168833 conserved=1.27673545e-07 kinetic_md=3.3966003e-11 potential=1.27639579e-07 Efield="0.0 1.0582429e-06 0.0" Eenvelope=0.000396481173 dipole="-3.5e-06 0.3881459 6.2e-07" pbc="T T T"
O        3.77946000       3.41870000       3.77945000      -0.00000000      -0.00000000       0.00000001
H        3.77945000       4.52675000       5.21071000       0.00000000      -0.00000001      -0.00000016
H        3.77945000       4.52675000       2.34819000       0.00000000       0.00000007       0.00000006
3
Lattice="7.0 0.0 0.0 4.286263797015736e-16 7.0 0.0 4.286263797015736e-16 4.2862637970157366e-16 7.0" Properties=species:S:1:pos:R:3:velocities:R:3 step=22.0 time=90.9510206 conserved=1.27673587e-07 kinetic_md=3.38759692e-11 potential=1.27639711e-07 Efield="-0.0 -3.76620173e-07 -0.0" Eenvelope=0.000399631374 dipole="-3.5e-06 0.38814597 5.6e-07" pbc="T T T"
O        3.77946000       3.41870000       3.77945000      -0.00000000      -0.00000000       0.00000001
H        3.77945000       4.52675000       5.21071000       0.00000000      -0.00000001      -0.00000016
H        3.77945000       4.52675000       2.34819000       0.00000000       0.00000007       0.00000006
3
Lattice="7.0 0.0 0.0 4.286263797015736e-16 7.0 0.0 4.286263797015736e-16 4.2862637970157366e-16 7.0" Properties=species:S:1:pos:R:3:velocities:R:3 step=23.0 time=95.0851579 conserved=1.2767346e-07 kinetic_md=3.34079716e-11 potential=1.27640052e-07 Efield="-0.0 -1.83236274e-06 -0.0" Eenvelope=0.000402804994 dipole="-3.5e-06 0.38814603 5.1e-07" pbc="T T T"
O        3.77946000       3.41870000       3.77945000      -0.00000000      -0.00000000       0.00000001
H        3.77945000       4.52675000       5.21071000       0.00000000      -0.00000001      -0.00000016
H        3.77945000       4.52675000       2.34819000       0.00000000       0.00000007       0.00000006
3
Lattice="7.0 0.0 0.0 4.286263797015736e-16 7.0 0.0 4.286263797015736e-16 4.2862637970157366e-16 7.0" Properties=species:S:1:pos:R:3:velocities:R:3 step=24.0 time=99.2192952 conserved=1.27673174e-07 kinetic_md=3.25750587e-11 potential=1.27640599e-07 Efield="-0.0 -3.30155094e-06 -0.0" Eenvelope=0.000406002192 dipole="-3.5e-06 0.38814609 4.6e-07" pbc="T T T"
O        3.77946000       3.41870000       3.77945000      -0.00000000      -0.00000000       0.00000001
H        3.77945000       4.52675000       5.21071000       0.00000000      -0.00000001      -0.00000016
H        3.77945000       4.52676000       2.34819000       0.00000000       0.00000006       0.00000006
3
Lattice="7.0 0.0 0.0 4.286263797015736e-16 7.0 0.0 4.286263797015736e-16 4.2862637970157366e-16 7.0" Properties=species:S:1:pos:R:3:velocities:R:3 step=25.0 time=103.353433 conserved=1.27672748e-07 kinetic_md=3.14001088e-11 potential=1.27641348e-07 Efield="-0.0 -4.77656075e-06 -0.0" Eenvelope=0.00040922313 dipole="-3.5e-06 0.38814614 4e-07" pbc="T T T"
O        3.77946000       3.41870000       3.77945000      -0.00000000      -0.00000000       0.00000001
H        3.77945000       4.52675000       5.21071000       0.00000000      -0.00000002      -0.00000016
H        3.77945000       4.52676000       2.34819000       0.00000000       0.00000006       0.00000006
3
Lattice="7.0 0.0 0.0 4.286263797015736e-16 7.0 0.0 4.286263797015736e-16 4.2862637970157366e-16 7.0" Properties=species:S:1:pos:R:3:velocities:R:3 step=26.0 time=107.48757 conserved=1.27672201e-07 kinetic_md=2.9915628e-11 potential=1.27642285e-07 Efield="-0.0 -6.24961573e-06 -0.0" Eenvelope=0.000412467972 dipole="-3.5e-06 0.3881462 3.5e-07" pbc="T T T"
O        3.77946000       3.41870000       3.77945000      -0.00000000      -0.00000000       0.00000001
H        3.77945000       4.52675000       5.21071000       0.00000000      -0.00000002      -0.00000016
H        3.77945000       4.52676000       2.34819000       0.00000000       0.00000006       0.00000006
3
Lattice="7.0 0.0 0.0 4.286263797015736e-16 7.0 0.0 4.286263797015736e-16 4.2862637970157366e-16 7.0" Properties=species:S:1:pos:R:3:velocities:R:3 step=27.0 time=111.621707 conserved=1.27671562e-07 kinetic_md=2.81633283e-11 potential=1.27643399e-07 Efield="-0.0 -7.71282626e-06 -0.0" Eenvelope=0.000415736879 dipole="-3.5e-06 0.38814625 3e-07" pbc="T T T"
O        3.77946000       3.41870000       3.77945000      -0.00000000      -0.00000000       0.00000001
H        3.77945000       4.52675000       5.21071000       0.00000000      -0.00000002      -0.00000015
H        3.77945000       4.52676000       2.34819000       0.00000000       0.00000005       0.00000006
3
Lattice="7.0 0.0 0.0 4.286263797015736e-16 7.0 0.0 4.286263797015736e-16 4.2862637970157366e-16 7.0" Properties=species:S:1:pos:R:3:velocities:R:3 step=28.0 time=115.755844 conserved=1.27670863e-07 kinetic_md=2.61934902e-11 potential=1.27644669e-07 Efield="-0.0 -9.1582299e-06 -0.0" Eenvelope=0.000419030017 dipole="-3.5e-06 0.38814629 2.6e-07" pbc="T T T"
O        3.77946000       3.41870000       3.77945000      -0.00000000      -0.00000000       0.00000001
H        3.77945000       4.52675000       5.21071000       0.00000000      -0.00000003      -0.00000015
H        3.77945000       4.52676000       2.34819000       0.00000000       0.00000004       0.00000006
3
Lattice="7.0 0.0 0.0 4.286263797015736e-16 7.0 0.0 4.286263797015736e-16 4.2862637970157366e-16 7.0" Properties=species:S:1:pos:R:3:velocities:R:3 step=29.0 time=119.889982 conserved=1.2767014e-07 kinetic_md=2.40641173e-11 potential=1.27646076e-07 Efield="-0.0 -1.05778329e-05 -0.0" Eenvelope=0.000422347552 dipole="-3.5e-06 0.38814633 2.1e-07" pbc="T T T"
O        3.77946000       3.41870000       3.77945000      -0.00000000      -0.00000000       0.00000001
H        3.77945000       4.52675000       5.21071000       0.00000000      -0.00000003      -0.00000014
H        3.77945000       4.52676000       2.34820000       0.00000000       0.00000004       0.00000006
3
Lattice="7.0 0.0 0.0 4.286263797015736e-16 7.0 0.0 4.286263797015736e-16 4.2862637970157366e-16 7.0" Properties=species:S:1:pos:R:3:velocities:R:3 step=30.0 time=124.024119 conserved=1.27669435e-07 kinetic_md=2.18398949e-11 potential=1.27647595e-07 Efield="-0.0 -1.19636523e-05 -0.0" Eenvelope=0.000425689649 dipole="-3.5e-06 0.38814636 1.7e-07" pbc="T T T"
O        3.77946000       3.41870000       3.77945000      -0.00000000       0.00000000       0.00000001
H        3.77945000       4.52675000       5.21071000       0.00000000      -0.00000003      -0.00000014
H        3.77945000       4.52676000       2.34820000       0.00000000       0.00000003       0.00000005
3
Lattice="7.0 0.0 0.0 4.286263797015736e-16 7.0 0.0 4.286263797015736e-16 4.2862637970157366e-16 7.0" Properties=species:S:1:pos:R:3:velocities:R:3 step=31.0 time=128.158256 conserved=1.27668792e-07 kinetic_md=1.95909692e-11 potential=1.27649201e-07 Efield="-0.0 -1.33077592e-05 -0.0" Eenvelope=0.000429056477 dipole="-3.5e-06 0.38814639 1.2e-07" pbc="T T T"
O        3.77946000       3.41870000       3.77945000      -0.00000000       0.00000000       0.00000000
H        3.77945000       4.52675000       5.21070000       0.00000000      -0.00000004      -0.00000013
H        3.77945000       4.52676000       2.34820000       0.00000000       0.00000002       0.00000005
3
Lattice="7.0 0.0 0.0 4.286263797015736e-16 7.0 0.0 4.286263797015736e-16 4.2862637970157366e-16 7.0" Properties=species:S:1:pos:R:3:velocities:R:3 step=32.0 time=132.292394 conserved=1.27668257e-07 kinetic_md=1.73915694e-11 potential=1.27650865e-07 Efield="-0.0 -1.46023216e-05 -0.0" Eenvelope=0.000432448203 dipole="-3.5e-06 0.38814641 9e-08" pbc="T T T"
O        3.77946000       3.41870000       3.77945000      -0.00000000       0.00000000       0.00000000
H        3.77945000       4.52675000       5.21070000       0.00000000      -0.00000004      -0.00000012
H        3.77945000       4.52676000       2.34820000       0.00000000       0.00000002       0.00000005
3
Lattice="7.0 0.0 0.0 4.286263797015736e-16 7.0 0.0 4.286263797015736e-16 4.2862637970157366e-16 7.0" Properties=species:S:1:pos:R:3:velocities:R:3 step=33.0 time=136.426531 conserved=1.27667877e-07 kinetic_md=1.53184966e-11 potential=1.27652559e-07 Efield="-0.0 -1.58396479e-05 -0.0" Eenvelope=0.000435864998 dipole="-3.5e-06 0.38814642 5e-08" pbc="T T T"
O        3.77946000       3.41870000       3.77945000      -0.00000000       0.00000000       0.00000000
H        3.77945000       4.52675000       5.21070000       0.00000000      -0.00000004      -0.00000011
H        3.77945000       4.52676000       2.34820000       0.00000000       0.00000001       0.00000004
3
Lattice="7.0 0.0 0.0 4.286263797015736e-16 7.0 0.0 4.286263797015736e-16 4.2862637970157366e-16 7.0" Properties=species:S:1:pos:R:3:velocities:R:3 step=34.0 time=140.560668 conserved=1.27667702e-07 kinetic_md=1.34495086e-11 potential=1.27654253e-07 Efield="-0.0 -1.70122307e-05 -0.0" Eenvelope=0.000439307032 dipole="-3.5e-06 0.38814643 2e-08" pbc="T T T"
O        3.77946000       3.41870000       3.77945000      -0.00000000       0.00000000       0.00000000
H        3.77945000       4.52675000       5.21070000       0.00000000      -0.00000005      -0.00000010
H        3.77945000       4.52676000       2.34820000       0.00000000      -0.00000000       0.00000004
3
Lattice="7.0 0.0 0.0 4.286263797015736e-16 7.0 0.0 4.286263797015736e-16 4.2862637970157366e-16 7.0" Properties=species:S:1:pos:R:3:velocities:R:3 step=35.0 time=144.694806 conserved=1.27667778e-07 kinetic_md=1.18616321e-11 potential=1.27655916e-07 Efield="-0.0 -1.81127894e-05 -0.0" Eenvelope=0.000442774476 dipole="-3.5e-06 0.38814643 -1e-08" pbc="T T T"
O        3.77946000       3.41870000       3.77945000      -0.00000000       0.00000000       0.00000000
H        3.77945000       4.52675000       5.21070000       0.00000000      -0.00000005      -0.00000009
H        3.77945000       4.52676000       2.34820000       0.00000000      -0.00000001       0.00000004
3
Lattice="7.0 0.0 0.0 4.286263797015736e-16 7.0 0.0 4.286263797015736e-16 4.2862637970157366e-16 7.0" Properties=species:S:1:pos:R:3:velocities:R:3 step=36.0 time=148.828943 conserved=1.2766815e-07 kinetic_md=1.0629437e-11 potential=1.27657521e-07 Efield="-0.0 -1.91343129e-05 -0.0" Eenvelope=0.000446267504 dipole="-3.5e-06 0.38814642 -4e-08" pbc="T T T"
O        3.77946000       3.41870000       3.77945000      -0.00000000       0.00000000       0.00000000
H        3.77945000       4.52675000       5.21070000       0.00000000      -0.00000006      -0.00000008
H        3.77945000       4.52676000       2.34820000       0.00000000      -0.00000002       0.00000003
3
Lattice="7.0 0.0 0.0 4.286263797015736e-16 7.0 0.0 4.286263797015736e-16 4.2862637970157366e-16 7.0" Properties=species:S:1:pos:R:3:velocities:R:3 step=37.0 time=152.96308 conserved=1.27668862e-07 kinetic_md=9.82330769e-12 potential=1.27659039e-07 Efield="-0.0 -2.00701014e-05 -0.0" Eenvelope=0.00044978629 dipole="-3.5e-06 0.3881464 -6e-08" pbc="T T T"
O        3.77946000       3.41870000       3.77945000      -0.00000000       0.00000001       0.00000000
H        3.77945000       4.52675000       5.21070000       0.00000000      -0.00000006      -0.00000007
H        3.77945000       4.52676000       2.34820000       0.00000000      -0.00000003       0.00000003
3
Lattice="7.0 0.0 0.0 4.286263797015736e-16 7.0 0.0 4.286263797015736e-16 4.2862637970157366e-16 7.0" Properties=species:S:1:pos:R:3:velocities:R:3 step=38.0 time=157.097217 conserved=1.27669952e-07 kinetic_md=9.5077481e-12 potential=1.27660444e-07 Efield="-0.0 -2.09138072e-05 -0.0" Eenvelope=0.000453331007 dipole="-3.5e-06 0.38814637 -8e-08" pbc="T T T"
O        3.77946000       3.41870000       3.77945000      -0.00000000       0.00000001       0.00000000
H        3.77945000       4.52675000       5.21070000       0.00000000      -0.00000007      -0.00000006
H        3.77945000       4.52676000       2.34820000       0.00000000      -0.00000004       0.00000002
3
Lattice="7.0 0.0 0.0 4.286263797015736e-16 7.0 0.0 4.286263797015736e-16 4.2862637970157366e-16 7.0" Properties=species:S:1:pos:R:3:velocities:R:3 step=39.0 time=161.231355 conserved=1.27671452e-07 kinetic_md=9.7397591e-12 potential=1.27661713e-07 Efield="-0.0 -2.1659474e-05 -0.0" Eenvelope=0.000456901832 dipole="-3.5e-06 0.38814633 -9e-08" pbc="T T T"
O        3.77946000       3.41870000       3.77945000      -0.00000000       0.00000001       0.00000000
H        3.77945000       4.52675000       5.21070000       0.00000000      -0.00000007      -0.00000004
H        3.77945000       4.52676000       2.34820000       0.00000000      -0.00000005       0.00000002
3
Lattice="7.0 0.0 0.0 4.286263797015736e-16 7.0 0.0 4.286263797015736e-16 4.2862637970157366e-16 7.0" Properties=species:S:1:pos:R:3:velocities:R:3 step=40.0 time=165.365492 conserved=1.27673391e-07 kinetic_md=1.05673233e-11 potential=1.27662823e-07 Efield="-0.0 -2.23015754e-05 -0.0" Eenvelope=0.000460498942 dipole="-3.5e-06 0.38814629 -1e-07" pbc="T T T"
O        3.77946000       3.41870000       3.77945000      -0.00000000       0.00000001       0.00000000
H        3.77945000       4.52675000       5.21070000       0.00000000      -0.00000007      -0.00000003
H        3.77945000       4.52676000       2.34820000       0.00000000      -0.00000006       0.00000001
3
Lattice="7.0 0.0 0.0 4.286263797015736e-16 7.0 0.0 4.286263797015736e-16 4.2862637970157366e-16 7.0" Properties=species:S:1:pos:R:3:velocities:R:3 step=41.0 time=169.499629 conserved=1.27675787e-07 kinetic_md=1.20280333e-11 potential=1.27663759e-07 Efield="-0.0 -2.28350506e-05 -0.0" Eenvelope=0.000464122515 dipole="-3.5e-06 0.38814623 -1.1e-07" pbc="T T T"
O        3.77946000       3.41870000       3.77945000      -0.00000000       0.00000001       0.00000000
H        3.77945000       4.52675000       5.21070000       0.00000000      -0.00000008      -0.00000002
H        3.77945000       4.52676000       2.34820000       0.00000000      -0.00000007       0.00000001
3
Lattice="7.0 0.0 0.0 4.286263797015736e-16 7.0 0.0 4.286263797015736e-16 4.2862637970157366e-16 7.0" Properties=species:S:1:pos:R:3:velocities:R:3 step=42.0 time=173.633767 conserved=1.27678652e-07 kinetic_md=1.41478971e-11 potential=1.27664505e-07 Efield="-0.0 -2.32553395e-05 -0.0" Eenvelope=0.00046777273 dipole="-3.5e-06 0.38814616 -1.1e-07" pbc="T T T"
O        3.77946000       3.41870000       3.77945000      -0.00000000       0.00000001       0.00000000
H        3.77945000       4.52675000       5.21070000       0.00000000      -0.00000008      -0.00000000
H        3.77945000       4.52676000       2.34820000       0.00000000      -0.00000008       0.00000000
3
Lattice="7.0 0.0 0.0 4.286263797015736e-16 7.0 0.0 4.286263797015736e-16 4.2862637970157366e-16 7.0" Properties=species:S:1:pos:R:3:velocities:R:3 step=43.0 time=177.767904 conserved=1.27681991e-07 kinetic_md=1.69403505e-11 potential=1.27665051e-07 Efield="-0.0 -2.35584143e-05 -0.0" Eenvelope=0.000471449767 dipole="-3.5e-06 0.38814609 -1.1e-07" pbc="T T T"
O        3.77946000       3.41870000       3.77945000      -0.00000000       0.00000001      -0.00000000
H        3.77945000       4.52675000       5.21070000       0.00000000      -0.00000009       0.00000001
H        3.77945000       4.52676000       2.34820000       0.00000000      -0.00000009      -0.00000001
3
Lattice="7.0 0.0 0.0 4.286263797015736e-16 7.0 0.0 4.286263797015736e-16 4.2862637970157366e-16 7.0" Properties=species:S:1:pos:R:3:velocities:R:3 step=44.0 time=181.902041 conserved=1.27685797e-07 kinetic_md=2.04055042e-11 potential=1.27665391e-07 Efield="-0.0 -2.374081e-05 -0.0" Eenvelope=0.000475153808 dipole="-3.5e-06 0.388146 -1.1e-07" pbc="T T T"