LAMMPS data file generated get_lammps_data.py [VK]

24 atoms
2 atom types

0.0 6.381821280722142 xlo xhi
0.0 6.381821280722142 ylo yhi
0.0 6.381821280722142 zlo zhi
0.0 0.0 0.0 xy xz yz

Masses

1 1.008
2 15.999

Atoms

    1     2 0.0  0.06509458  0.0
    2     1 5.84638648  5.861064660000001  0.5354348100000001
    3     1 0.5354348100000001  5.861064660000001  5.84638648
    4     2 3.1909106400000002  3.2560052200000005  0.0
    5     1 2.65547583  2.67015402  0.5354348100000001
    6     1 3.72634545  2.67015402  5.84638648
    7     2 3.1909106400000002  6.316726700000001  3.1909106400000002
    8     1 3.72634545  0.52075662  3.72634545
    9     1 2.65547583  0.52075662  2.65547583
   10     2 0.0  3.12581606  3.1909106400000002
   11     1 0.5354348100000001  3.7116672600000005  3.72634545
   12     1 5.84638648  3.7116672600000005  2.65547583
   13     2 1.6605499  1.5954553200000001  1.5954553200000001
   14     1 1.0746987000000001  2.1308901300000005  2.1308901300000005
   15     1 1.0746987000000001  1.0600205100000002  1.0600205100000002
   16     2 4.851460540000001  4.78636596  1.5954553200000001
   17     1 4.26560934  4.25093116  1.0600205100000002
   18     1 4.26560934  5.321800770000001  2.1308901300000005
   19     2 4.72127138  1.5954553200000001  4.78636596
   20     1 5.307122580000001  2.1308901300000005  4.25093116
   21     1 5.307122580000001  1.0600205100000002  5.321800770000001
   22     2 1.5303607400000003  4.78636596  4.78636596
   23     1 2.11621194  5.321800770000001  4.25093116
   24     1 2.11621194  4.25093116  5.321800770000001

