LAMMPS (2 Aug 2023 - Update 2)
  using 1 OpenMP thread(s) per MPI task
Loaded 1 plugins from /home/tisi/ipi-paper-test/venv-cpu/lib64/python3.9/site-packages/deepmd/lib
Loaded 1 plugins from /home/tisi/ipi-paper-test/venv-cpu/lib64/python3.9/site-packages/deepmd/lib
Reading data file ...
  orthogonal box = (0 0 0) to (51.05457 51.05457 51.05457)
  1 by 1 by 2 MPI processor grid
  reading atoms ...
  12288 atoms
  read_data CPU = 0.023 seconds
Summary of lammps deepmd module ...
  >>> Info of deepmd-kit:
  installed to:       /usr/local
  source:             v2.2.9
  source branch:      HEAD
  source commit:      be437483
  source commit at:   2024-02-04 13:44:12 +0800
  support model ver.: 1.1 
  build variant:      cuda
  build with tf inc:  /tmp/pip-build-env-lkf22wl1/normal/lib/python3.11/site-packages/tensorflow/include/;/tmp/pip-build-env-lkf22wl1/normal/lib/python3.11/site-packages/tensorflow/include/
  build with tf lib:  /tmp/pip-build-env-lkf22wl1/normal/lib/python3.11/site-packages/tensorflow/libtensorflow_cc.so.2
  set tf intra_op_parallelism_threads: 0
  set tf inter_op_parallelism_threads: 0
  >>> Info of lammps module:
  use deepmd-kit at:  /usr/local
  source:             v2.2.9
  source branch:      HEAD
  source commit:      be437483
  source commit at:   2024-02-04 13:44:12 +0800
  build float prec:   double
  build with tf inc:  /tmp/pip-build-env-lkf22wl1/normal/lib/python3.11/site-packages/tensorflow/include/;/tmp/pip-build-env-lkf22wl1/normal/lib/python3.11/site-packages/tensorflow/include/
  build with tf lib:  /tmp/pip-build-env-lkf22wl1/normal/lib/python3.11/site-packages/tensorflow/libtensorflow_cc.so.2
INVALID_ARGUMENT: Tensor spin_attr/ntypes_spin:0, specified in either feed_devices or fetch_devices was not found in the Graph
INVALID_ARGUMENT: Tensor spin_attr/ntypes_spin:0, specified in either feed_devices or fetch_devices was not found in the Graph
  >>> Info of model(s):
  using   1 model(s): ../frozen_model.pb 
  rcut in model:      6
  ntypes in model:    2

CITE-CITE-CITE-CITE-CITE-CITE-CITE-CITE-CITE-CITE-CITE-CITE-CITE

Your simulation uses code contributions which should be cited:
- USER-DEEPMD package:
The log file lists these citations in BibTeX format.

CITE-CITE-CITE-CITE-CITE-CITE-CITE-CITE-CITE-CITE-CITE-CITE-CITE

Generated 0 of 1 mixed pair_coeff terms from geometric mixing rule
Neighbor list info ...
  update: every = 1 steps, delay = 0 steps, check = yes
  max neighbors/atom: 2000, page size: 100000
  master list distance cutoff = 6.1
  ghost atom cutoff = 6.1
  binsize = 3.05, bins = 17 17 17
  1 neighbor lists, perpetual/occasional/extra = 1 0 0
  (1) pair deepmd, perpetual
      attributes: full, newton on
      pair build: full/bin/atomonly
      stencil: full/bin/3d
      bin: standard
Setting up Verlet run ...
  Unit style    : metal
  Current step  : 0
  Time step     : 0.002
Per MPI rank memory allocation (min/avg/max) = 5.402 | 5.406 | 5.411 Mbytes
   Step          Time           Temp          PotEng         TotEng         Press          Volume          Pxx            Pyy            Pzz            Pxy            Pxz            Pyz      
         0   0              0             -1917578.7     -1917578.7      36197.507      133077.27      36365.475      36365.475      35861.571      0.00010368368 -0.0010705934  -0.0012015717 
       100   0.2            38.553562     -1917687.6     -1917626.3      8124.6962      133077.27      10192.473      10192.473      3989.1428      2.5965477e-05 -0.00044084297 -0.00022600595
Loop time of 568.789 on 2 procs for 100 steps with 12288 atoms

Performance: 0.030 ns/day, 789.985 hours/ns, 0.176 timesteps/s, 2.160 katom-step/s
99.4% CPU use with 2 MPI tasks x 1 OpenMP threads

MPI task timing breakdown:
Section |  min time  |  avg time  |  max time  |%varavg| %total
---------------------------------------------------------------
Pair    | 543.67     | 556.12     | 568.56     |  52.8 | 97.77
Neigh   | 0.17226    | 0.18161    | 0.19095    |   2.2 |  0.03
Comm    | 0.016375   | 12.475     | 24.933     | 352.7 |  2.19
Output  | 0.0001307  | 0.00013849 | 0.00014628 |   0.0 |  0.00
Modify  | 0.011617   | 0.011782   | 0.011946   |   0.2 |  0.00
Other   |            | 0.005652   |            |       |  0.00

Nlocal:           6144 ave        6208 max        6080 min
Histogram: 1 0 0 0 0 0 0 0 0 1
Nghost:           7841 ave        7905 max        7777 min
Histogram: 1 0 0 0 0 0 0 0 0 1
Neighs:              0 ave           0 max           0 min
Histogram: 2 0 0 0 0 0 0 0 0 0
FullNghs:       544768 ave      550656 max      538880 min
Histogram: 1 0 0 0 0 0 0 0 0 1

Total # of neighbors = 1089536
Ave neighs/atom = 88.666667
Neighbor list builds = 22
Dangerous builds = 0
Total wall time: 0:09:35
