LAMMPS (17 Apr 2024 - Development - r11423-31533-gb5ecea502a)
