LAMMPS data file generated get_lammps_data.py [VK]

192 atoms
2 atom types

0.0 12.763642561444284 xlo xhi
0.0 12.763642561444284 ylo yhi
0.0 12.763642561444284 zlo zhi
0.0 0.0 0.0 xy xz yz

Masses

1 1.008
2 15.999

Atoms

    1     2 0.0  0.06509458  0.0
    2     1 5.84638648  5.861064660000001  0.5354348100000001
    3     1 0.5354348100000001  5.861064660000001  5.84638648
    4     2 3.1909106400000002  3.2560052200000005  0.0
    5     1 2.65547583  2.67015402  0.5354348100000001
    6     1 3.72634545  2.67015402  5.84638648
    7     2 3.1909106400000002  6.316726700000001  3.1909106400000002
    8     1 3.72634545  0.52075662  3.72634545
    9     1 2.65547583  0.52075662  2.65547583
   10     2 0.0  3.12581606  3.1909106400000002
   11     1 0.5354348100000001  3.7116672600000005  3.72634545
   12     1 5.84638648  3.7116672600000005  2.65547583
   13     2 1.6605499  1.5954553200000001  1.5954553200000001
   14     1 1.0746987000000001  2.1308901300000005  2.1308901300000005
   15     1 1.0746987000000001  1.0600205100000002  1.0600205100000002
   16     2 4.851460540000001  4.78636596  1.5954553200000001
   17     1 4.26560934  4.25093116  1.0600205100000002
   18     1 4.26560934  5.321800770000001  2.1308901300000005
   19     2 4.72127138  1.5954553200000001  4.78636596
   20     1 5.307122580000001  2.1308901300000005  4.25093116
   21     1 5.307122580000001  1.0600205100000002  5.321800770000001
   22     2 1.5303607400000003  4.78636596  4.78636596
   23     1 2.11621194  5.321800770000001  4.25093116
   24     1 2.11621194  4.25093116  5.321800770000001
   25     2 0.0  0.06509458  6.3818212800000005
   26     1 5.84638648  5.861064660000001  6.917256090000001
   27     1 0.5354348100000001  5.861064660000001  12.228207760000002
   28     2 3.1909106400000002  3.2560052200000005  6.3818212800000005
   29     1 2.65547583  2.67015402  6.917256090000001
   30     1 3.72634545  2.67015402  12.228207760000002
   31     2 3.1909106400000002  6.316726700000001  9.57273192
   32     1 3.72634545  0.52075662  10.10816673
   33     1 2.65547583  0.52075662  9.037297110000003
   34     2 0.0  3.12581606  9.57273192
   35     1 0.5354348100000001  3.7116672600000005  10.10816673
   36     1 5.84638648  3.7116672600000005  9.037297110000003
   37     2 1.6605499  1.5954553200000001  7.977276600000001
   38     1 1.0746987000000001  2.1308901300000005  8.512711410000001
   39     1 1.0746987000000001  1.0600205100000002  7.44184179
   40     2 4.851460540000001  4.78636596  7.977276600000001
   41     1 4.26560934  4.25093116  7.44184179
   42     1 4.26560934  5.321800770000001  8.512711410000001
   43     2 4.72127138  1.5954553200000001  11.168187240000002
   44     1 5.307122580000001  2.1308901300000005  10.632752440000003
   45     1 5.307122580000001  1.0600205100000002  11.70362205
   46     2 1.5303607400000003  4.78636596  11.168187240000002
   47     1 2.11621194  5.321800770000001  10.632752440000003
   48     1 2.11621194  4.25093116  11.70362205
   49     2 0.0  6.446915860000001  0.0
   50     1 5.84638648  12.242885940000003  0.5354348100000001
   51     1 0.5354348100000001  12.242885940000003  5.84638648
   52     2 3.1909106400000002  9.6378265  0.0
   53     1 2.65547583  9.0519753  0.5354348100000001
   54     1 3.72634545  9.0519753  5.84638648
   55     2 3.1909106400000002  12.698547980000003  3.1909106400000002
   56     1 3.72634545  6.9025779  3.72634545
   57     1 2.65547583  6.9025779  2.65547583
   58     2 0.0  9.50763734  3.1909106400000002
   59     1 0.5354348100000001  10.09348854  3.72634545
   60     1 5.84638648  10.09348854  2.65547583
   61     2 1.6605499  7.977276600000001  1.5954553200000001
   62     1 1.0746987000000001  8.512711410000001  2.1308901300000005
   63     1 1.0746987000000001  7.44184179  1.0600205100000002
   64     2 4.851460540000001  11.168187240000002  1.5954553200000001
   65     1 4.26560934  10.632752440000003  1.0600205100000002
   66     1 4.26560934  11.70362205  2.1308901300000005
   67     2 4.72127138  7.977276600000001  4.78636596
   68     1 5.307122580000001  8.512711410000001  4.25093116
   69     1 5.307122580000001  7.44184179  5.321800770000001
   70     2 1.5303607400000003  11.168187240000002  4.78636596
   71     1 2.11621194  11.70362205  4.25093116
   72     1 2.11621194  10.632752440000003  5.321800770000001
   73     2 0.0  6.446915860000001  6.3818212800000005
   74     1 5.84638648  12.242885940000003  6.917256090000001
   75     1 0.5354348100000001  12.242885940000003  12.228207760000002
   76     2 3.1909106400000002  9.6378265  6.3818212800000005
   77     1 2.65547583  9.0519753  6.917256090000001
   78     1 3.72634545  9.0519753  12.228207760000002
   79     2 3.1909106400000002  12.698547980000003  9.57273192
   80     1 3.72634545  6.9025779  10.10816673
   81     1 2.65547583  6.9025779  9.037297110000003
   82     2 0.0  9.50763734  9.57273192
   83     1 0.5354348100000001  10.09348854  10.10816673
   84     1 5.84638648  10.09348854  9.037297110000003
   85     2 1.6605499  7.977276600000001  7.977276600000001
   86     1 1.0746987000000001  8.512711410000001  8.512711410000001
   87     1 1.0746987000000001  7.44184179  7.44184179
   88     2 4.851460540000001  11.168187240000002  7.977276600000001
   89     1 4.26560934  10.632752440000003  7.44184179
   90     1 4.26560934  11.70362205  8.512711410000001
   91     2 4.72127138  7.977276600000001  11.168187240000002
   92     1 5.307122580000001  8.512711410000001  10.632752440000003
   93     1 5.307122580000001  7.44184179  11.70362205
   94     2 1.5303607400000003  11.168187240000002  11.168187240000002
   95     1 2.11621194  11.70362205  10.632752440000003
   96     1 2.11621194  10.632752440000003  11.70362205
   97     2 6.3818212800000005  0.06509458  0.0
   98     1 12.228207760000002  5.861064660000001  0.5354348100000001
   99     1 6.917256090000001  5.861064660000001  5.84638648
  100     2 9.57273192  3.2560052200000005  0.0
  101     1 9.037297110000003  2.67015402  0.5354348100000001
  102     1 10.10816673  2.67015402  5.84638648
  103     2 9.57273192  6.316726700000001  3.1909106400000002
  104     1 10.10816673  0.52075662  3.72634545
  105     1 9.037297110000003  0.52075662  2.65547583
  106     2 6.3818212800000005  3.12581606  3.1909106400000002
  107     1 6.917256090000001  3.7116672600000005  3.72634545
  108     1 12.228207760000002  3.7116672600000005  2.65547583
  109     2 8.04237118  1.5954553200000001  1.5954553200000001
  110     1 7.456519980000001  2.1308901300000005  2.1308901300000005
  111     1 7.456519980000001  1.0600205100000002  1.0600205100000002
  112     2 11.233281820000002  4.78636596  1.5954553200000001
  113     1 10.64743062  4.25093116  1.0600205100000002
  114     1 10.64743062  5.321800770000001  2.1308901300000005
  115     2 11.10309266  1.5954553200000001  4.78636596
  116     1 11.688943860000002  2.1308901300000005  4.25093116
  117     1 11.688943860000002  1.0600205100000002  5.321800770000001
  118     2 7.912182020000001  4.78636596  4.78636596
  119     1 8.49803322  5.321800770000001  4.25093116
  120     1 8.49803322  4.25093116  5.321800770000001
  121     2 6.3818212800000005  0.06509458  6.3818212800000005
  122     1 12.228207760000002  5.861064660000001  6.917256090000001
  123     1 6.917256090000001  5.861064660000001  12.228207760000002
  124     2 9.57273192  3.2560052200000005  6.3818212800000005
  125     1 9.037297110000003  2.67015402  6.917256090000001
  126     1 10.10816673  2.67015402  12.228207760000002
  127     2 9.57273192  6.316726700000001  9.57273192
  128     1 10.10816673  0.52075662  10.10816673
  129     1 9.037297110000003  0.52075662  9.037297110000003
  130     2 6.3818212800000005  3.12581606  9.57273192
  131     1 6.917256090000001  3.7116672600000005  10.10816673
  132     1 12.228207760000002  3.7116672600000005  9.037297110000003
  133     2 8.04237118  1.5954553200000001  7.977276600000001
  134     1 7.456519980000001  2.1308901300000005  8.512711410000001
  135     1 7.456519980000001  1.0600205100000002  7.44184179
  136     2 11.233281820000002  4.78636596  7.977276600000001
  137     1 10.64743062  4.25093116  7.44184179
  138     1 10.64743062  5.321800770000001  8.512711410000001
  139     2 11.10309266  1.5954553200000001  11.168187240000002
  140     1 11.688943860000002  2.1308901300000005  10.632752440000003
  141     1 11.688943860000002  1.0600205100000002  11.70362205
  142     2 7.912182020000001  4.78636596  11.168187240000002
  143     1 8.49803322  5.321800770000001  10.632752440000003
  144     1 8.49803322  4.25093116  11.70362205
  145     2 6.3818212800000005  6.446915860000001  0.0
  146     1 12.228207760000002  12.242885940000003  0.5354348100000001
  147     1 6.917256090000001  12.242885940000003  5.84638648
  148     2 9.57273192  9.6378265  0.0
  149     1 9.037297110000003  9.0519753  0.5354348100000001
  150     1 10.10816673  9.0519753  5.84638648
  151     2 9.57273192  12.698547980000003  3.1909106400000002
  152     1 10.10816673  6.9025779  3.72634545
  153     1 9.037297110000003  6.9025779  2.65547583
  154     2 6.3818212800000005  9.50763734  3.1909106400000002
  155     1 6.917256090000001  10.09348854  3.72634545
  156     1 12.228207760000002  10.09348854  2.65547583
  157     2 8.04237118  7.977276600000001  1.5954553200000001
  158     1 7.456519980000001  8.512711410000001  2.1308901300000005
  159     1 7.456519980000001  7.44184179  1.0600205100000002
  160     2 11.233281820000002  11.168187240000002  1.5954553200000001
  161     1 10.64743062  10.632752440000003  1.0600205100000002
  162     1 10.64743062  11.70362205  2.1308901300000005
  163     2 11.10309266  7.977276600000001  4.78636596
  164     1 11.688943860000002  8.512711410000001  4.25093116
  165     1 11.688943860000002  7.44184179  5.321800770000001
  166     2 7.912182020000001  11.168187240000002  4.78636596
  167     1 8.49803322  11.70362205  4.25093116
  168     1 8.49803322  10.632752440000003  5.321800770000001
  169     2 6.3818212800000005  6.446915860000001  6.3818212800000005
  170     1 12.228207760000002  12.242885940000003  6.917256090000001
  171     1 6.917256090000001  12.242885940000003  12.228207760000002
  172     2 9.57273192  9.6378265  6.3818212800000005
  173     1 9.037297110000003  9.0519753  6.917256090000001
  174     1 10.10816673  9.0519753  12.228207760000002
  175     2 9.57273192  12.698547980000003  9.57273192
  176     1 10.10816673  6.9025779  10.10816673
  177     1 9.037297110000003  6.9025779  9.037297110000003
  178     2 6.3818212800000005  9.50763734  9.57273192
  179     1 6.917256090000001  10.09348854  10.10816673
  180     1 12.228207760000002  10.09348854  9.037297110000003
  181     2 8.04237118  7.977276600000001  7.977276600000001
  182     1 7.456519980000001  8.512711410000001  8.512711410000001
  183     1 7.456519980000001  7.44184179  7.44184179
  184     2 11.233281820000002  11.168187240000002  7.977276600000001
  185     1 10.64743062  10.632752440000003  7.44184179
  186     1 10.64743062  11.70362205  8.512711410000001
  187     2 11.10309266  7.977276600000001  11.168187240000002
  188     1 11.688943860000002  8.512711410000001  10.632752440000003
  189     1 11.688943860000002  7.44184179  11.70362205
  190     2 7.912182020000001  11.168187240000002  11.168187240000002
  191     1 8.49803322  11.70362205  10.632752440000003
  192     1 8.49803322  10.632752440000003  11.70362205

