LAMMPS data file generated get_lammps_data.py [VK]

1536 atoms
2 atom types

0.0 25.527285122888568 xlo xhi
0.0 25.527285122888568 ylo yhi
0.0 25.527285122888568 zlo zhi
0.0 0.0 0.0 xy xz yz

Masses

1 1.008
2 15.999

Atoms

    1     2 0.0  0.06509458  0.0
    2     1 5.84638648  5.861064660000001  0.5354348100000001
    3     1 0.5354348100000001  5.861064660000001  5.84638648
    4     2 3.1909106400000002  3.2560052200000005  0.0
    5     1 2.65547583  2.67015402  0.5354348100000001
    6     1 3.72634545  2.67015402  5.84638648
    7     2 3.1909106400000002  6.316726700000001  3.1909106400000002
    8     1 3.72634545  0.52075662  3.72634545
    9     1 2.65547583  0.52075662  2.65547583
   10     2 0.0  3.12581606  3.1909106400000002
   11     1 0.5354348100000001  3.7116672600000005  3.72634545
   12     1 5.84638648  3.7116672600000005  2.65547583
   13     2 1.6605499  1.5954553200000001  1.5954553200000001
   14     1 1.0746987000000001  2.1308901300000005  2.1308901300000005
   15     1 1.0746987000000001  1.0600205100000002  1.0600205100000002
   16     2 4.851460540000001  4.78636596  1.5954553200000001
   17     1 4.26560934  4.25093116  1.0600205100000002
   18     1 4.26560934  5.321800770000001  2.1308901300000005
   19     2 4.72127138  1.5954553200000001  4.78636596
   20     1 5.307122580000001  2.1308901300000005  4.25093116
   21     1 5.307122580000001  1.0600205100000002  5.321800770000001
   22     2 1.5303607400000003  4.78636596  4.78636596
   23     1 2.11621194  5.321800770000001  4.25093116
   24     1 2.11621194  4.25093116  5.321800770000001
   25     2 0.0  0.06509458  6.3818212800000005
   26     1 5.84638648  5.861064660000001  6.917256090000001
   27     1 0.5354348100000001  5.861064660000001  12.228207760000002
   28     2 3.1909106400000002  3.2560052200000005  6.3818212800000005
   29     1 2.65547583  2.67015402  6.917256090000001
   30     1 3.72634545  2.67015402  12.228207760000002
   31     2 3.1909106400000002  6.316726700000001  9.57273192
   32     1 3.72634545  0.52075662  10.10816673
   33     1 2.65547583  0.52075662  9.037297110000003
   34     2 0.0  3.12581606  9.57273192
   35     1 0.5354348100000001  3.7116672600000005  10.10816673
   36     1 5.84638648  3.7116672600000005  9.037297110000003
   37     2 1.6605499  1.5954553200000001  7.977276600000001
   38     1 1.0746987000000001  2.1308901300000005  8.512711410000001
   39     1 1.0746987000000001  1.0600205100000002  7.44184179
   40     2 4.851460540000001  4.78636596  7.977276600000001
   41     1 4.26560934  4.25093116  7.44184179
   42     1 4.26560934  5.321800770000001  8.512711410000001
   43     2 4.72127138  1.5954553200000001  11.168187240000002
   44     1 5.307122580000001  2.1308901300000005  10.632752440000003
   45     1 5.307122580000001  1.0600205100000002  11.70362205
   46     2 1.5303607400000003  4.78636596  11.168187240000002
   47     1 2.11621194  5.321800770000001  10.632752440000003
   48     1 2.11621194  4.25093116  11.70362205
   49     2 0.0  0.06509458  12.763642560000001
   50     1 5.84638648  5.861064660000001  13.299077370000001
   51     1 0.5354348100000001  5.861064660000001  18.61002904
   52     2 3.1909106400000002  3.2560052200000005  12.763642560000001
   53     1 2.65547583  2.67015402  13.299077370000001
   54     1 3.72634545  2.67015402  18.61002904
   55     2 3.1909106400000002  6.316726700000001  15.954553200000001
   56     1 3.72634545  0.52075662  16.48998801
   57     1 2.65547583  0.52075662  15.419118390000001
   58     2 0.0  3.12581606  15.954553200000001
   59     1 0.5354348100000001  3.7116672600000005  16.48998801
   60     1 5.84638648  3.7116672600000005  15.419118390000001
   61     2 1.6605499  1.5954553200000001  14.359097880000002
   62     1 1.0746987000000001  2.1308901300000005  14.894532690000002
   63     1 1.0746987000000001  1.0600205100000002  13.82366307
   64     2 4.851460540000001  4.78636596  14.359097880000002
   65     1 4.26560934  4.25093116  13.82366307
   66     1 4.26560934  5.321800770000001  14.894532690000002
   67     2 4.72127138  1.5954553200000001  17.550008520000002
   68     1 5.307122580000001  2.1308901300000005  17.014573720000005
   69     1 5.307122580000001  1.0600205100000002  18.085443330000004
   70     2 1.5303607400000003  4.78636596  17.550008520000002
   71     1 2.11621194  5.321800770000001  17.014573720000005
   72     1 2.11621194  4.25093116  18.085443330000004
   73     2 0.0  0.06509458  19.14546384
   74     1 5.84638648  5.861064660000001  19.68089865
   75     1 0.5354348100000001  5.861064660000001  24.991850320000005
   76     2 3.1909106400000002  3.2560052200000005  19.14546384
   77     1 2.65547583  2.67015402  19.68089865
   78     1 3.72634545  2.67015402  24.991850320000005
   79     2 3.1909106400000002  6.316726700000001  22.336374480000003
   80     1 3.72634545  0.52075662  22.871809290000005
   81     1 2.65547583  0.52075662  21.800939670000005
   82     2 0.0  3.12581606  22.336374480000003
   83     1 0.5354348100000001  3.7116672600000005  22.871809290000005
   84     1 5.84638648  3.7116672600000005  21.800939670000005
   85     2 1.6605499  1.5954553200000001  20.74091916
   86     1 1.0746987000000001  2.1308901300000005  21.276353970000002
   87     1 1.0746987000000001  1.0600205100000002  20.20548435
   88     2 4.851460540000001  4.78636596  20.74091916
   89     1 4.26560934  4.25093116  20.20548435
   90     1 4.26560934  5.321800770000001  21.276353970000002
   91     2 4.72127138  1.5954553200000001  23.9318298
   92     1 5.307122580000001  2.1308901300000005  23.396395000000002
   93     1 5.307122580000001  1.0600205100000002  24.46726461
   94     2 1.5303607400000003  4.78636596  23.9318298
   95     1 2.11621194  5.321800770000001  23.396395000000002
   96     1 2.11621194  4.25093116  24.46726461
   97     2 0.0  6.446915860000001  0.0
   98     1 5.84638648  12.242885940000003  0.5354348100000001
   99     1 0.5354348100000001  12.242885940000003  5.84638648
  100     2 3.1909106400000002  9.6378265  0.0
  101     1 2.65547583  9.0519753  0.5354348100000001
  102     1 3.72634545  9.0519753  5.84638648
  103     2 3.1909106400000002  12.698547980000003  3.1909106400000002
  104     1 3.72634545  6.9025779  3.72634545
  105     1 2.65547583  6.9025779  2.65547583
  106     2 0.0  9.50763734  3.1909106400000002
  107     1 0.5354348100000001  10.09348854  3.72634545
  108     1 5.84638648  10.09348854  2.65547583
  109     2 1.6605499  7.977276600000001  1.5954553200000001
  110     1 1.0746987000000001  8.512711410000001  2.1308901300000005
  111     1 1.0746987000000001  7.44184179  1.0600205100000002
  112     2 4.851460540000001  11.168187240000002  1.5954553200000001
  113     1 4.26560934  10.632752440000003  1.0600205100000002
  114     1 4.26560934  11.70362205  2.1308901300000005
  115     2 4.72127138  7.977276600000001  4.78636596
  116     1 5.307122580000001  8.512711410000001  4.25093116
  117     1 5.307122580000001  7.44184179  5.321800770000001
  118     2 1.5303607400000003  11.168187240000002  4.78636596
  119     1 2.11621194  11.70362205  4.25093116
  120     1 2.11621194  10.632752440000003  5.321800770000001
  121     2 0.0  6.446915860000001  6.3818212800000005
  122     1 5.84638648  12.242885940000003  6.917256090000001
  123     1 0.5354348100000001  12.242885940000003  12.228207760000002
  124     2 3.1909106400000002  9.6378265  6.3818212800000005
  125     1 2.65547583  9.0519753  6.917256090000001
  126     1 3.72634545  9.0519753  12.228207760000002
  127     2 3.1909106400000002  12.698547980000003  9.57273192
  128     1 3.72634545  6.9025779  10.10816673
  129     1 2.65547583  6.9025779  9.037297110000003
  130     2 0.0  9.50763734  9.57273192
  131     1 0.5354348100000001  10.09348854  10.10816673
  132     1 5.84638648  10.09348854  9.037297110000003
  133     2 1.6605499  7.977276600000001  7.977276600000001
  134     1 1.0746987000000001  8.512711410000001  8.512711410000001
  135     1 1.0746987000000001  7.44184179  7.44184179
  136     2 4.851460540000001  11.168187240000002  7.977276600000001
  137     1 4.26560934  10.632752440000003  7.44184179
  138     1 4.26560934  11.70362205  8.512711410000001
  139     2 4.72127138  7.977276600000001  11.168187240000002
  140     1 5.307122580000001  8.512711410000001  10.632752440000003
  141     1 5.307122580000001  7.44184179  11.70362205
  142     2 1.5303607400000003  11.168187240000002  11.168187240000002
  143     1 2.11621194  11.70362205  10.632752440000003
  144     1 2.11621194  10.632752440000003  11.70362205
  145     2 0.0  6.446915860000001  12.763642560000001
  146     1 5.84638648  12.242885940000003  13.299077370000001
  147     1 0.5354348100000001  12.242885940000003  18.61002904
  148     2 3.1909106400000002  9.6378265  12.763642560000001
  149     1 2.65547583  9.0519753  13.299077370000001
  150     1 3.72634545  9.0519753  18.61002904
  151     2 3.1909106400000002  12.698547980000003  15.954553200000001
  152     1 3.72634545  6.9025779  16.48998801
  153     1 2.65547583  6.9025779  15.419118390000001
  154     2 0.0  9.50763734  15.954553200000001
  155     1 0.5354348100000001  10.09348854  16.48998801
  156     1 5.84638648  10.09348854  15.419118390000001
  157     2 1.6605499  7.977276600000001  14.359097880000002
  158     1 1.0746987000000001  8.512711410000001  14.894532690000002
  159     1 1.0746987000000001  7.44184179  13.82366307
  160     2 4.851460540000001  11.168187240000002  14.359097880000002
  161     1 4.26560934  10.632752440000003  13.82366307
  162     1 4.26560934  11.70362205  14.894532690000002
  163     2 4.72127138  7.977276600000001  17.550008520000002
  164     1 5.307122580000001  8.512711410000001  17.014573720000005
  165     1 5.307122580000001  7.44184179  18.085443330000004
  166     2 1.5303607400000003  11.168187240000002  17.550008520000002
  167     1 2.11621194  11.70362205  17.014573720000005
  168     1 2.11621194  10.632752440000003  18.085443330000004
  169     2 0.0  6.446915860000001  19.14546384
  170     1 5.84638648  12.242885940000003  19.68089865
  171     1 0.5354348100000001  12.242885940000003  24.991850320000005
  172     2 3.1909106400000002  9.6378265  19.14546384
  173     1 2.65547583  9.0519753  19.68089865
  174     1 3.72634545  9.0519753  24.991850320000005
  175     2 3.1909106400000002  12.698547980000003  22.336374480000003
  176     1 3.72634545  6.9025779  22.871809290000005
  177     1 2.65547583  6.9025779  21.800939670000005
  178     2 0.0  9.50763734  22.336374480000003
  179     1 0.5354348100000001  10.09348854  22.871809290000005
  180     1 5.84638648  10.09348854  21.800939670000005
  181     2 1.6605499  7.977276600000001  20.74091916
  182     1 1.0746987000000001  8.512711410000001  21.276353970000002
  183     1 1.0746987000000001  7.44184179  20.20548435
  184     2 4.851460540000001  11.168187240000002  20.74091916
  185     1 4.26560934  10.632752440000003  20.20548435
  186     1 4.26560934  11.70362205  21.276353970000002
  187     2 4.72127138  7.977276600000001  23.9318298
  188     1 5.307122580000001  8.512711410000001  23.396395000000002
  189     1 5.307122580000001  7.44184179  24.46726461
  190     2 1.5303607400000003  11.168187240000002  23.9318298
  191     1 2.11621194  11.70362205  23.396395000000002
  192     1 2.11621194  10.632752440000003  24.46726461
  193     2 0.0  12.82873714  0.0
  194     1 5.84638648  18.62470722  0.5354348100000001
  195     1 0.5354348100000001  18.62470722  5.84638648
  196     2 3.1909106400000002  16.01964778  0.0
  197     1 2.65547583  15.433796580000001  0.5354348100000001
  198     1 3.72634545  15.433796580000001  5.84638648
  199     2 3.1909106400000002  19.08036926  3.1909106400000002
  200     1 3.72634545  13.28439918  3.72634545
  201     1 2.65547583  13.28439918  2.65547583
  202     2 0.0  15.889458620000001  3.1909106400000002
  203     1 0.5354348100000001  16.47530982  3.72634545
  204     1 5.84638648  16.47530982  2.65547583
  205     2 1.6605499  14.359097880000002  1.5954553200000001
  206     1 1.0746987000000001  14.894532690000002  2.1308901300000005
  207     1 1.0746987000000001  13.82366307  1.0600205100000002
  208     2 4.851460540000001  17.550008520000002  1.5954553200000001
  209     1 4.26560934  17.014573720000005  1.0600205100000002
  210     1 4.26560934  18.085443330000004  2.1308901300000005
  211     2 4.72127138  14.359097880000002  4.78636596
  212     1 5.307122580000001  14.894532690000002  4.25093116
  213     1 5.307122580000001  13.82366307  5.321800770000001
  214     2 1.5303607400000003  17.550008520000002  4.78636596
  215     1 2.11621194  18.085443330000004  4.25093116
  216     1 2.11621194  17.014573720000005  5.321800770000001
  217     2 0.0  12.82873714  6.3818212800000005
  218     1 5.84638648  18.62470722  6.917256090000001
  219     1 0.5354348100000001  18.62470722  12.228207760000002
  220     2 3.1909106400000002  16.01964778  6.3818212800000005
  221     1 2.65547583  15.433796580000001  6.917256090000001
  222     1 3.72634545  15.433796580000001  12.228207760000002
  223     2 3.1909106400000002  19.08036926  9.57273192
  224     1 3.72634545  13.28439918  10.10816673
  225     1 2.65547583  13.28439918  9.037297110000003
  226     2 0.0  15.889458620000001  9.57273192
  227     1 0.5354348100000001  16.47530982  10.10816673
  228     1 5.84638648  16.47530982  9.037297110000003
  229     2 1.6605499  14.359097880000002  7.977276600000001
  230     1 1.0746987000000001  14.894532690000002  8.512711410000001
  231     1 1.0746987000000001  13.82366307  7.44184179
  232     2 4.851460540000001  17.550008520000002  7.977276600000001
  233     1 4.26560934  17.014573720000005  7.44184179
  234     1 4.26560934  18.085443330000004  8.512711410000001
  235     2 4.72127138  14.359097880000002  11.168187240000002
  236     1 5.307122580000001  14.894532690000002  10.632752440000003
  237     1 5.307122580000001  13.82366307  11.70362205
  238     2 1.5303607400000003  17.550008520000002  11.168187240000002
  239     1 2.11621194  18.085443330000004  10.632752440000003
  240     1 2.11621194  17.014573720000005  11.70362205
  241     2 0.0  12.82873714  12.763642560000001
  242     1 5.84638648  18.62470722  13.299077370000001
  243     1 0.5354348100000001  18.62470722  18.61002904
  244     2 3.1909106400000002  16.01964778  12.763642560000001
  245     1 2.65547583  15.433796580000001  13.299077370000001
  246     1 3.72634545  15.433796580000001  18.61002904
  247     2 3.1909106400000002  19.08036926  15.954553200000001
  248     1 3.72634545  13.28439918  16.48998801
  249     1 2.65547583  13.28439918  15.419118390000001
  250     2 0.0  15.889458620000001  15.954553200000001
  251     1 0.5354348100000001  16.47530982  16.48998801
  252     1 5.84638648  16.47530982  15.419118390000001
  253     2 1.6605499  14.359097880000002  14.359097880000002
  254     1 1.0746987000000001  14.894532690000002  14.894532690000002
  255     1 1.0746987000000001  13.82366307  13.82366307
  256     2 4.851460540000001  17.550008520000002  14.359097880000002
  257     1 4.26560934  17.014573720000005  13.82366307
  258     1 4.26560934  18.085443330000004  14.894532690000002
  259     2 4.72127138  14.359097880000002  17.550008520000002
  260     1 5.307122580000001  14.894532690000002  17.014573720000005
  261     1 5.307122580000001  13.82366307  18.085443330000004
  262     2 1.5303607400000003  17.550008520000002  17.550008520000002
  263     1 2.11621194  18.085443330000004  17.014573720000005
  264     1 2.11621194  17.014573720000005  18.085443330000004
  265     2 0.0  12.82873714  19.14546384
  266     1 5.84638648  18.62470722  19.68089865
  267     1 0.5354348100000001  18.62470722  24.991850320000005
  268     2 3.1909106400000002  16.01964778  19.14546384
  269     1 2.65547583  15.433796580000001  19.68089865
  270     1 3.72634545  15.433796580000001  24.991850320000005
  271     2 3.1909106400000002  19.08036926  22.336374480000003
  272     1 3.72634545  13.28439918  22.871809290000005
  273     1 2.65547583  13.28439918  21.800939670000005
  274     2 0.0  15.889458620000001  22.336374480000003
  275     1 0.5354348100000001  16.47530982  22.871809290000005
  276     1 5.84638648  16.47530982  21.800939670000005
  277     2 1.6605499  14.359097880000002  20.74091916
  278     1 1.0746987000000001  14.894532690000002  21.276353970000002
  279     1 1.0746987000000001  13.82366307  20.20548435
  280     2 4.851460540000001  17.550008520000002  20.74091916
  281     1 4.26560934  17.014573720000005  20.20548435
  282     1 4.26560934  18.085443330000004  21.276353970000002
  283     2 4.72127138  14.359097880000002  23.9318298
  284     1 5.307122580000001  14.894532690000002  23.396395000000002
  285     1 5.307122580000001  13.82366307  24.46726461
  286     2 1.5303607400000003  17.550008520000002  23.9318298
  287     1 2.11621194  18.085443330000004  23.396395000000002
  288     1 2.11621194  17.014573720000005  24.46726461
  289     2 0.0  19.210558420000005  0.0
  290     1 5.84638648  25.006528500000005  0.5354348100000001
  291     1 0.5354348100000001  25.006528500000005  5.84638648
  292     2 3.1909106400000002  22.401469060000004  0.0
  293     1 2.65547583  21.81561786  0.5354348100000001
  294     1 3.72634545  21.81561786  5.84638648
  295     2 3.1909106400000002  25.462190540000005  3.1909106400000002
  296     1 3.72634545  19.666220460000005  3.72634545
  297     1 2.65547583  19.666220460000005  2.65547583
  298     2 0.0  22.2712799  3.1909106400000002
  299     1 0.5354348100000001  22.857131100000004  3.72634545
  300     1 5.84638648  22.857131100000004  2.65547583
  301     2 1.6605499  20.74091916  1.5954553200000001
  302     1 1.0746987000000001  21.276353970000002  2.1308901300000005
  303     1 1.0746987000000001  20.20548435  1.0600205100000002
  304     2 4.851460540000001  23.9318298  1.5954553200000001
  305     1 4.26560934  23.396395000000002  1.0600205100000002
  306     1 4.26560934  24.46726461  2.1308901300000005
  307     2 4.72127138  20.74091916  4.78636596
  308     1 5.307122580000001  21.276353970000002  4.25093116
  309     1 5.307122580000001  20.20548435  5.321800770000001
  310     2 1.5303607400000003  23.9318298  4.78636596
  311     1 2.11621194  24.46726461  4.25093116
  312     1 2.11621194  23.396395000000002  5.321800770000001
  313     2 0.0  19.210558420000005  6.3818212800000005
  314     1 5.84638648  25.006528500000005  6.917256090000001
  315     1 0.5354348100000001  25.006528500000005  12.228207760000002
  316     2 3.1909106400000002  22.401469060000004  6.3818212800000005
  317     1 2.65547583  21.81561786  6.917256090000001
  318     1 3.72634545  21.81561786  12.228207760000002
  319     2 3.1909106400000002  25.462190540000005  9.57273192
  320     1 3.72634545  19.666220460000005  10.10816673
  321     1 2.65547583  19.666220460000005  9.037297110000003
  322     2 0.0  22.2712799  9.57273192
  323     1 0.5354348100000001  22.857131100000004  10.10816673
  324     1 5.84638648  22.857131100000004  9.037297110000003
  325     2 1.6605499  20.74091916  7.977276600000001
  326     1 1.0746987000000001  21.276353970000002  8.512711410000001
  327     1 1.0746987000000001  20.20548435  7.44184179
  328     2 4.851460540000001  23.9318298  7.977276600000001
  329     1 4.26560934  23.396395000000002  7.44184179
  330     1 4.26560934  24.46726461  8.512711410000001
  331     2 4.72127138  20.74091916  11.168187240000002
  332     1 5.307122580000001  21.276353970000002  10.632752440000003
  333     1 5.307122580000001  20.20548435  11.70362205
  334     2 1.5303607400000003  23.9318298  11.168187240000002
  335     1 2.11621194  24.46726461  10.632752440000003
  336     1 2.11621194  23.396395000000002  11.70362205
  337     2 0.0  19.210558420000005  12.763642560000001
  338     1 5.84638648  25.006528500000005  13.299077370000001
  339     1 0.5354348100000001  25.006528500000005  18.61002904
  340     2 3.1909106400000002  22.401469060000004  12.763642560000001
  341     1 2.65547583  21.81561786  13.299077370000001
  342     1 3.72634545  21.81561786  18.61002904
  343     2 3.1909106400000002  25.462190540000005  15.954553200000001
  344     1 3.72634545  19.666220460000005  16.48998801
  345     1 2.65547583  19.666220460000005  15.419118390000001
  346     2 0.0  22.2712799  15.954553200000001
  347     1 0.5354348100000001  22.857131100000004  16.48998801
  348     1 5.84638648  22.857131100000004  15.419118390000001
  349     2 1.6605499  20.74091916  14.359097880000002
  350     1 1.0746987000000001  21.276353970000002  14.894532690000002
  351     1 1.0746987000000001  20.20548435  13.82366307
  352     2 4.851460540000001  23.9318298  14.359097880000002
  353     1 4.26560934  23.396395000000002  13.82366307
  354     1 4.26560934  24.46726461  14.894532690000002
  355     2 4.72127138  20.74091916  17.550008520000002
  356     1 5.307122580000001  21.276353970000002  17.014573720000005
  357     1 5.307122580000001  20.20548435  18.085443330000004
  358     2 1.5303607400000003  23.9318298  17.550008520000002
  359     1 2.11621194  24.46726461  17.014573720000005
  360     1 2.11621194  23.396395000000002  18.085443330000004
  361     2 0.0  19.210558420000005  19.14546384
  362     1 5.84638648  25.006528500000005  19.68089865
  363     1 0.5354348100000001  25.006528500000005  24.991850320000005
  364     2 3.1909106400000002  22.401469060000004  19.14546384
  365     1 2.65547583  21.81561786  19.68089865
  366     1 3.72634545  21.81561786  24.991850320000005
  367     2 3.1909106400000002  25.462190540000005  22.336374480000003
  368     1 3.72634545  19.666220460000005  22.871809290000005
  369     1 2.65547583  19.666220460000005  21.800939670000005
  370     2 0.0  22.2712799  22.336374480000003
  371     1 0.5354348100000001  22.857131100000004  22.871809290000005
  372     1 5.84638648  22.857131100000004  21.800939670000005
  373     2 1.6605499  20.74091916  20.74091916
  374     1 1.0746987000000001  21.276353970000002  21.276353970000002
  375     1 1.0746987000000001  20.20548435  20.20548435
  376     2 4.851460540000001  23.9318298  20.74091916
  377     1 4.26560934  23.396395000000002  20.20548435
  378     1 4.26560934  24.46726461  21.276353970000002
  379     2 4.72127138  20.74091916  23.9318298
  380     1 5.307122580000001  21.276353970000002  23.396395000000002
  381     1 5.307122580000001  20.20548435  24.46726461
  382     2 1.5303607400000003  23.9318298  23.9318298
  383     1 2.11621194  24.46726461  23.396395000000002
  384     1 2.11621194  23.396395000000002  24.46726461
  385     2 6.3818212800000005  0.06509458  0.0
  386     1 12.228207760000002  5.861064660000001  0.5354348100000001
  387     1 6.917256090000001  5.861064660000001  5.84638648
  388     2 9.57273192  3.2560052200000005  0.0
  389     1 9.037297110000003  2.67015402  0.5354348100000001
  390     1 10.10816673  2.67015402  5.84638648
  391     2 9.57273192  6.316726700000001  3.1909106400000002
  392     1 10.10816673  0.52075662  3.72634545
  393     1 9.037297110000003  0.52075662  2.65547583
  394     2 6.3818212800000005  3.12581606  3.1909106400000002
  395     1 6.917256090000001  3.7116672600000005  3.72634545
  396     1 12.228207760000002  3.7116672600000005  2.65547583
  397     2 8.04237118  1.5954553200000001  1.5954553200000001
  398     1 7.456519980000001  2.1308901300000005  2.1308901300000005
  399     1 7.456519980000001  1.0600205100000002  1.0600205100000002
  400     2 11.233281820000002  4.78636596  1.5954553200000001
  401     1 10.64743062  4.25093116  1.0600205100000002
  402     1 10.64743062  5.321800770000001  2.1308901300000005
  403     2 11.10309266  1.5954553200000001  4.78636596
  404     1 11.688943860000002  2.1308901300000005  4.25093116
  405     1 11.688943860000002  1.0600205100000002  5.321800770000001
  406     2 7.912182020000001  4.78636596  4.78636596
  407     1 8.49803322  5.321800770000001  4.25093116
  408     1 8.49803322  4.25093116  5.321800770000001
  409     2 6.3818212800000005  0.06509458  6.3818212800000005
  410     1 12.228207760000002  5.861064660000001  6.917256090000001
  411     1 6.917256090000001  5.861064660000001  12.228207760000002
  412     2 9.57273192  3.2560052200000005  6.3818212800000005
  413     1 9.037297110000003  2.67015402  6.917256090000001
  414     1 10.10816673  2.67015402  12.228207760000002
  415     2 9.57273192  6.316726700000001  9.57273192
  416     1 10.10816673  0.52075662  10.10816673
  417     1 9.037297110000003  0.52075662  9.037297110000003
  418     2 6.3818212800000005  3.12581606  9.57273192
  419     1 6.917256090000001  3.7116672600000005  10.10816673
  420     1 12.228207760000002  3.7116672600000005  9.037297110000003
  421     2 8.04237118  1.5954553200000001  7.977276600000001
  422     1 7.456519980000001  2.1308901300000005  8.512711410000001
  423     1 7.456519980000001  1.0600205100000002  7.44184179
  424     2 11.233281820000002  4.78636596  7.977276600000001
  425     1 10.64743062  4.25093116  7.44184179
  426     1 10.64743062  5.321800770000001  8.512711410000001
  427     2 11.10309266  1.5954553200000001  11.168187240000002
  428     1 11.688943860000002  2.1308901300000005  10.632752440000003
  429     1 11.688943860000002  1.0600205100000002  11.70362205
  430     2 7.912182020000001  4.78636596  11.168187240000002
  431     1 8.49803322  5.321800770000001  10.632752440000003
  432     1 8.49803322  4.25093116  11.70362205
  433     2 6.3818212800000005  0.06509458  12.763642560000001
  434     1 12.228207760000002  5.861064660000001  13.299077370000001
  435     1 6.917256090000001  5.861064660000001  18.61002904
  436     2 9.57273192  3.2560052200000005  12.763642560000001
  437     1 9.037297110000003  2.67015402  13.299077370000001
  438     1 10.10816673  2.67015402  18.61002904
  439     2 9.57273192  6.316726700000001  15.954553200000001
  440     1 10.10816673  0.52075662  16.48998801
  441     1 9.037297110000003  0.52075662  15.419118390000001
  442     2 6.3818212800000005  3.12581606  15.954553200000001
  443     1 6.917256090000001  3.7116672600000005  16.48998801
  444     1 12.228207760000002  3.7116672600000005  15.419118390000001
  445     2 8.04237118  1.5954553200000001  14.359097880000002
  446     1 7.456519980000001  2.1308901300000005  14.894532690000002
  447     1 7.456519980000001  1.0600205100000002  13.82366307
  448     2 11.233281820000002  4.78636596  14.359097880000002
  449     1 10.64743062  4.25093116  13.82366307
  450     1 10.64743062  5.321800770000001  14.894532690000002
  451     2 11.10309266  1.5954553200000001  17.550008520000002
  452     1 11.688943860000002  2.1308901300000005  17.014573720000005
  453     1 11.688943860000002  1.0600205100000002  18.085443330000004
  454     2 7.912182020000001  4.78636596  17.550008520000002
  455     1 8.49803322  5.321800770000001  17.014573720000005
  456     1 8.49803322  4.25093116  18.085443330000004
  457     2 6.3818212800000005  0.06509458  19.14546384
  458     1 12.228207760000002  5.861064660000001  19.68089865
  459     1 6.917256090000001  5.861064660000001  24.991850320000005
  460     2 9.57273192  3.2560052200000005  19.14546384
  461     1 9.037297110000003  2.67015402  19.68089865
  462     1 10.10816673  2.67015402  24.991850320000005
  463     2 9.57273192  6.316726700000001  22.336374480000003
  464     1 10.10816673  0.52075662  22.871809290000005
  465     1 9.037297110000003  0.52075662  21.800939670000005
  466     2 6.3818212800000005  3.12581606  22.336374480000003
  467     1 6.917256090000001  3.7116672600000005  22.871809290000005
  468     1 12.228207760000002  3.7116672600000005  21.800939670000005
  469     2 8.04237118  1.5954553200000001  20.74091916
  470     1 7.456519980000001  2.1308901300000005  21.276353970000002
  471     1 7.456519980000001  1.0600205100000002  20.20548435
  472     2 11.233281820000002  4.78636596  20.74091916
  473     1 10.64743062  4.25093116  20.20548435
  474     1 10.64743062  5.321800770000001  21.276353970000002
  475     2 11.10309266  1.5954553200000001  23.9318298
  476     1 11.688943860000002  2.1308901300000005  23.396395000000002
  477     1 11.688943860000002  1.0600205100000002  24.46726461
  478     2 7.912182020000001  4.78636596  23.9318298
  479     1 8.49803322  5.321800770000001  23.396395000000002
  480     1 8.49803322  4.25093116  24.46726461
  481     2 6.3818212800000005  6.446915860000001  0.0
  482     1 12.228207760000002  12.242885940000003  0.5354348100000001
  483     1 6.917256090000001  12.242885940000003  5.84638648
  484     2 9.57273192  9.6378265  0.0
  485     1 9.037297110000003  9.0519753  0.5354348100000001
  486     1 10.10816673  9.0519753  5.84638648
  487     2 9.57273192  12.698547980000003  3.1909106400000002
  488     1 10.10816673  6.9025779  3.72634545
  489     1 9.037297110000003  6.9025779  2.65547583
  490     2 6.3818212800000005  9.50763734  3.1909106400000002
  491     1 6.917256090000001  10.09348854  3.72634545
  492     1 12.228207760000002  10.09348854  2.65547583
  493     2 8.04237118  7.977276600000001  1.5954553200000001
  494     1 7.456519980000001  8.512711410000001  2.1308901300000005
  495     1 7.456519980000001  7.44184179  1.0600205100000002
  496     2 11.233281820000002  11.168187240000002  1.5954553200000001
  497     1 10.64743062  10.632752440000003  1.0600205100000002
  498     1 10.64743062  11.70362205  2.1308901300000005
  499     2 11.10309266  7.977276600000001  4.78636596
  500     1 11.688943860000002  8.512711410000001  4.25093116
  501     1 11.688943860000002  7.44184179  5.321800770000001
  502     2 7.912182020000001  11.168187240000002  4.78636596
  503     1 8.49803322  11.70362205  4.25093116